71464397
  -OEChem-10101508212D

152152  0     1  0  0  0  0  0999 V2000
   13.8626   -4.5950    0.0000 O   0  0  0  0  0  0  0  0  0  0  0  0
   14.3312    2.4050    0.0000 O   0  0  0  0  0  0  0  0  0  0  0  0
   11.1305   -2.0950    0.0000 O   0  0  0  0  0  0  0  0  0  0  0  0
   11.5991    4.9050    0.0000 O   0  0  0  0  0  0  0  0  0  0  0  0
    6.1350    4.9050    0.0000 O   0  0  0  0  0  0  0  0  0  0  0  0
    8.3985   -4.5950    0.0000 O   0  0  0  0  0  0  0  0  0  0  0  0
    5.6664   -2.0950    0.0000 O   0  0  0  0  0  0  0  0  0  0  0  0
    8.8671    2.4050    0.0000 O   0  0  0  0  0  0  0  0  0  0  0  0
    2.5369    3.9050    0.0000 O   0  0  0  0  0  0  0  0  0  0  0  0
   10.5991    5.4050    0.0000 O   0  0  0  0  0  0  0  0  0  0  0  0
    3.4030    2.4050    0.0000 O   0  0  0  0  0  0  0  0  0  0  0  0
   11.1305   -6.0950    0.0000 O   0  0  0  0  0  0  0  0  0  0  0  0
   11.9965   -4.5950    0.0000 O   0  0  0  0  0  0  0  0  0  0  0  0
    9.2645   -2.0950    0.0000 O   0  0  0  0  0  0  0  0  0  0  0  0
    3.5369    0.4050    0.0000 O   0  0  0  0  0  0  0  0  0  0  0  0
   16.0632    3.4050    0.0000 N   0  0  0  0  0  0  0  0  0  0  0  0
   12.1305   -3.5950    0.0000 N   0  0  0  0  0  0  0  0  0  0  0  0
   13.3312    3.9050    0.0000 N   0  0  0  0  0  0  0  0  0  0  0  0
    9.3985   -3.0950    0.0000 N   0  0  0  0  0  0  0  0  0  0  0  0
    5.1350    3.4050    0.0000 N   0  0  0  0  0  0  0  0  0  0  0  0
    7.8671    3.9050    0.0000 N   0  0  0  0  0  0  0  0  0  0  0  0
   10.5991    3.4050    0.0000 N   0  0  0  0  0  0  0  0  0  0  0  0
    6.6664   -3.5950    0.0000 N   0  0  0  0  0  0  0  0  0  0  0  0
    3.9344   -3.0950    0.0000 N   0  0  0  0  0  0  0  0  0  0  0  0
   15.5946   -1.5950    0.0000 N   0  0  0  0  0  0  0  0  0  0  0  0
    8.3985   -0.5950    0.0000 N   0  0  0  0  0  0  0  0  0  0  0  0
   17.3267   -1.5950    0.0000 N   0  0  0  0  0  0  0  0  0  0  0  0
   16.4606   -3.0950    0.0000 N   0  0  0  0  0  0  0  0  0  0  0  0
   15.1972    3.9050    0.0000 C   0  0  3  0  0  0  0  0  0  0  0  0
   15.1972    4.9050    0.0000 C   0  0  0  0  0  0  0  0  0  0  0  0
   16.0632    5.4050    0.0000 C   0  0  0  0  0  0  0  0  0  0  0  0
   12.9965   -3.0950    0.0000 C   0  0  3  0  0  0  0  0  0  0  0  0
   12.9965   -2.0950    0.0000 C   0  0  0  0  0  0  0  0  0  0  0  0
   13.8626   -3.5950    0.0000 C   0  0  0  0  0  0  0  0  0  0  0  0
   14.3312    3.4050    0.0000 C   0  0  0  0  0  0  0  0  0  0  0  0
   16.0632    6.4050    0.0000 C   0  0  0  0  0  0  0  0  0  0  0  0
   16.9292    4.9050    0.0000 C   0  0  0  0  0  0  0  0  0  0  0  0
   13.8626   -1.5950    0.0000 C   0  0  0  0  0  0  0  0  0  0  0  0
   10.2645   -3.5950    0.0000 C   0  0  3  0  0  0  0  0  0  0  0  0
   12.4651    3.4050    0.0000 C   0  0  3  0  0  0  0  0  0  0  0  0
    4.2690    4.9050    0.0000 C   0  0  0  0  0  0  0  0  0  0  0  0
   11.1305   -3.0950    0.0000 C   0  0  0  0  0  0  0  0  0  0  0  0
    3.4030    5.4050    0.0000 C   0  0  0  0  0  0  0  0  0  0  0  0
    4.2690    3.9050    0.0000 C   0  0  3  0  0  0  0  0  0  0  0  0
    7.0010    3.4050    0.0000 C   0  0  3  0  0  0  0  0  0  0  0  0
    4.8004   -4.5950    0.0000 C   0  0  0  0  0  0  0  0  0  0  0  0
    3.9344   -5.0950    0.0000 C   0  0  0  0  0  0  0  0  0  0  0  0
    4.8004   -3.5950    0.0000 C   0  0  3  0  0  0  0  0  0  0  0  0
    7.5324   -3.0950    0.0000 C   0  0  3  0  0  0  0  0  0  0  0  0
   14.7286   -2.0950    0.0000 C   0  0  0  0  0  0  0  0  0  0  0  0
   10.2645   -4.5950    0.0000 C   0  0  0  0  0  0  0  0  0  0  0  0
    9.7331    3.9050    0.0000 C   0  0  3  0  0  0  0  0  0  0  0  0
   11.5991    3.9050    0.0000 C   0  0  0  0  0  0  0  0  0  0  0  0
    7.0010    2.4050    0.0000 C   0  0  0  0  0  0  0  0  0  0  0  0
    6.1350    3.9050    0.0000 C   0  0  0  0  0  0  0  0  0  0  0  0
    8.3985   -3.5950    0.0000 C   0  0  0  0  0  0  0  0  0  0  0  0
   12.4651    2.4050    0.0000 C   0  0  0  0  0  0  0  0  0  0  0  0
    5.6664   -3.0950    0.0000 C   0  0  0  0  0  0  0  0  0  0  0  0
    3.4030    6.4050    0.0000 C   0  0  0  0  0  0  0  0  0  0  0  0
    2.5369    4.9050    0.0000 C   0  0  0  0  0  0  0  0  0  0  0  0
    8.8671    3.4050    0.0000 C   0  0  0  0  0  0  0  0  0  0  0  0
    7.5324   -2.0950    0.0000 C   0  0  0  0  0  0  0  0  0  0  0  0
    3.9344   -6.0950    0.0000 C   0  0  0  0  0  0  0  0  0  0  0  0
    3.0683   -4.5950    0.0000 C   0  0  0  0  0  0  0  0  0  0  0  0
    3.4030    3.4050    0.0000 C   0  0  0  0  0  0  0  0  0  0  0  0
    6.1350    1.9050    0.0000 C   0  0  0  0  0  0  0  0  0  0  0  0
    9.7331    4.9050    0.0000 C   0  0  0  0  0  0  0  0  0  0  0  0
   11.1305   -5.0950    0.0000 C   0  0  0  0  0  0  0  0  0  0  0  0
    8.3985   -1.5950    0.0000 C   0  0  0  0  0  0  0  0  0  0  0  0
    6.1350    0.9050    0.0000 C   0  0  0  0  0  0  0  0  0  0  0  0
    5.2690    2.4050    0.0000 C   0  0  0  0  0  0  0  0  0  0  0  0
   16.4606   -2.0950    0.0000 C   0  0  0  0  0  0  0  0  0  0  0  0
    5.2690    0.4050    0.0000 C   0  0  0  0  0  0  0  0  0  0  0  0
    4.4030    1.9050    0.0000 C   0  0  0  0  0  0  0  0  0  0  0  0
    4.4030    0.9050    0.0000 C   0  0  0  0  0  0  0  0  0  0  0  0
   15.1972    3.2850    0.0000 H   0  0  0  0  0  0  0  0  0  0  0  0
   14.9851    5.4876    0.0000 H   0  0  0  0  0  0  0  0  0  0  0  0
   14.5866    4.7973    0.0000 H   0  0  0  0  0  0  0  0  0  0  0  0
   15.5263    5.7150    0.0000 H   0  0  0  0  0  0  0  0  0  0  0  0
   12.4596   -2.7850    0.0000 H   0  0  0  0  0  0  0  0  0  0  0  0
   16.6001    3.0950    0.0000 H   0  0  0  0  0  0  0  0  0  0  0  0
   12.7845   -1.5124    0.0000 H   0  0  0  0  0  0  0  0  0  0  0  0
   12.3860   -2.2027    0.0000 H   0  0  0  0  0  0  0  0  0  0  0  0
   16.6832    6.4050    0.0000 H   0  0  0  0  0  0  0  0  0  0  0  0
   16.0632    7.0250    0.0000 H   0  0  0  0  0  0  0  0  0  0  0  0
   15.4432    6.4050    0.0000 H   0  0  0  0  0  0  0  0  0  0  0  0
   16.6192    4.3681    0.0000 H   0  0  0  0  0  0  0  0  0  0  0  0
   17.4662    4.5950    0.0000 H   0  0  0  0  0  0  0  0  0  0  0  0
   17.2392    5.4419    0.0000 H   0  0  0  0  0  0  0  0  0  0  0  0
   14.2611   -1.1200    0.0000 H   0  0  0  0  0  0  0  0  0  0  0  0
   13.4640   -1.1200    0.0000 H   0  0  0  0  0  0  0  0  0  0  0  0
   12.6675   -3.9050    0.0000 H   0  0  0  0  0  0  0  0  0  0  0  0
    9.7276   -3.9050    0.0000 H   0  0  0  0  0  0  0  0  0  0  0  0
   13.8681    4.2150    0.0000 H   0  0  0  0  0  0  0  0  0  0  0  0
   13.0021    3.0950    0.0000 H   0  0  0  0  0  0  0  0  0  0  0  0
    4.8796    4.7973    0.0000 H   0  0  0  0  0  0  0  0  0  0  0  0
    4.4810    5.4876    0.0000 H   0  0  0  0  0  0  0  0  0  0  0  0
    3.4030    4.7850    0.0000 H   0  0  0  0  0  0  0  0  0  0  0  0
    4.8059    4.2150    0.0000 H   0  0  0  0  0  0  0  0  0  0  0  0
    7.5380    3.0950    0.0000 H   0  0  0  0  0  0  0  0  0  0  0  0
    5.0124   -5.1776    0.0000 H   0  0  0  0  0  0  0  0  0  0  0  0
    5.4110   -4.4873    0.0000 H   0  0  0  0  0  0  0  0  0  0  0  0
    3.3974   -5.4050    0.0000 H   0  0  0  0  0  0  0  0  0  0  0  0
    4.2635   -3.9050    0.0000 H   0  0  0  0  0  0  0  0  0  0  0  0
    6.9955   -2.7850    0.0000 H   0  0  0  0  0  0  0  0  0  0  0  0
   14.3301   -2.5700    0.0000 H   0  0  0  0  0  0  0  0  0  0  0  0
   15.1271   -2.5700    0.0000 H   0  0  0  0  0  0  0  0  0  0  0  0
    9.9354   -2.7850    0.0000 H   0  0  0  0  0  0  0  0  0  0  0  0
    9.6539   -4.4873    0.0000 H   0  0  0  0  0  0  0  0  0  0  0  0
   10.0524   -5.1776    0.0000 H   0  0  0  0  0  0  0  0  0  0  0  0
   10.2700    4.2150    0.0000 H   0  0  0  0  0  0  0  0  0  0  0  0
    5.6720    3.0950    0.0000 H   0  0  0  0  0  0  0  0  0  0  0  0
    7.2131    1.8224    0.0000 H   0  0  0  0  0  0  0  0  0  0  0  0
    7.6116    2.5127    0.0000 H   0  0  0  0  0  0  0  0  0  0  0  0
   11.8451    2.4050    0.0000 H   0  0  0  0  0  0  0  0  0  0  0  0
   12.4651    1.7850    0.0000 H   0  0  0  0  0  0  0  0  0  0  0  0
   13.0851    2.4050    0.0000 H   0  0  0  0  0  0  0  0  0  0  0  0
    8.4040    4.2150    0.0000 H   0  0  0  0  0  0  0  0  0  0  0  0
   11.1360    3.0950    0.0000 H   0  0  0  0  0  0  0  0  0  0  0  0
    7.2034   -3.9050    0.0000 H   0  0  0  0  0  0  0  0  0  0  0  0
    2.2269    5.4419    0.0000 H   0  0  0  0  0  0  0  0  0  0  0  0
    2.0000    4.5950    0.0000 H   0  0  0  0  0  0  0  0  0  0  0  0
    2.8469    4.3681    0.0000 H   0  0  0  0  0  0  0  0  0  0  0  0
    4.0230    6.4050    0.0000 H   0  0  0  0  0  0  0  0  0  0  0  0
    3.4030    7.0250    0.0000 H   0  0  0  0  0  0  0  0  0  0  0  0
    2.7830    6.4050    0.0000 H   0  0  0  0  0  0  0  0  0  0  0  0
    7.3204   -1.5124    0.0000 H   0  0  0  0  0  0  0  0  0  0  0  0
    6.9219   -2.2027    0.0000 H   0  0  0  0  0  0  0  0  0  0  0  0
    3.3783   -4.0581    0.0000 H   0  0  0  0  0  0  0  0  0  0  0  0
    2.5314   -4.2850    0.0000 H   0  0  0  0  0  0  0  0  0  0  0  0
    3.3144   -6.0950    0.0000 H   0  0  0  0  0  0  0  0  0  0  0  0
    3.9344   -6.7150    0.0000 H   0  0  0  0  0  0  0  0  0  0  0  0
    4.5544   -6.0950    0.0000 H   0  0  0  0  0  0  0  0  0  0  0  0
    2.7583   -5.1319    0.0000 H   0  0  0  0  0  0  0  0  0  0  0  0
    9.5210    5.4876    0.0000 H   0  0  0  0  0  0  0  0  0  0  0  0
    9.1225    4.7973    0.0000 H   0  0  0  0  0  0  0  0  0  0  0  0
    3.9344   -2.4750    0.0000 H   0  0  0  0  0  0  0  0  0  0  0  0
    4.4713   -3.4050    0.0000 H   0  0  0  0  0  0  0  0  0  0  0  0
    6.6720    0.5950    0.0000 H   0  0  0  0  0  0  0  0  0  0  0  0
    5.2690    3.0250    0.0000 H   0  0  0  0  0  0  0  0  0  0  0  0
    2.0000    3.5950    0.0000 H   0  0  0  0  0  0  0  0  0  0  0  0
    5.2690   -0.2150    0.0000 H   0  0  0  0  0  0  0  0  0  0  0  0
    3.8660    2.2150    0.0000 H   0  0  0  0  0  0  0  0  0  0  0  0
   10.5991    6.0250    0.0000 H   0  0  0  0  0  0  0  0  0  0  0  0
   11.6675   -6.4050    0.0000 H   0  0  0  0  0  0  0  0  0  0  0  0
    8.9354   -0.2850    0.0000 H   0  0  0  0  0  0  0  0  0  0  0  0
    7.8615   -0.2850    0.0000 H   0  0  0  0  0  0  0  0  0  0  0  0
   17.8636   -1.9050    0.0000 H   0  0  0  0  0  0  0  0  0  0  0  0
   17.3267   -0.9750    0.0000 H   0  0  0  0  0  0  0  0  0  0  0  0
   16.9976   -3.4050    0.0000 H   0  0  0  0  0  0  0  0  0  0  0  0
   15.9237   -3.4050    0.0000 H   0  0  0  0  0  0  0  0  0  0  0  0
    3.0000    0.7150    0.0000 H   0  0  0  0  0  0  0  0  0  0  0  0
  1 34  2  0  0  0  0
  2 35  2  0  0  0  0
  3 42  2  0  0  0  0
  4 53  2  0  0  0  0
  5 55  2  0  0  0  0
  6 56  2  0  0  0  0
  7 58  2  0  0  0  0
  8 61  2  0  0  0  0
  9 65  1  0  0  0  0
  9141  1  0  0  0  0
 10 67  1  0  0  0  0
 10144  1  0  0  0  0
 11 65  2  0  0  0  0
 12 68  1  0  0  0  0
 12145  1  0  0  0  0
 13 68  2  0  0  0  0
 14 69  2  0  0  0  0
 15 75  1  0  0  0  0
 15152  1  0  0  0  0
 16 29  1  0  0  0  0
 16 34  1  0  0  0  0
 16 81  1  0  0  0  0
 17 32  1  0  0  0  0
 17 42  1  0  0  0  0
 17 92  1  0  0  0  0
 18 35  1  0  0  0  0
 18 40  1  0  0  0  0
 18 94  1  0  0  0  0
 19 39  1  0  0  0  0
 19 56  1  0  0  0  0
 19108  1  0  0  0  0
 20 44  1  0  0  0  0
 20 55  1  0  0  0  0
 20112  1  0  0  0  0
 21 45  1  0  0  0  0
 21 61  1  0  0  0  0
 21118  1  0  0  0  0
 22 52  1  0  0  0  0
 22 53  1  0  0  0  0
 22119  1  0  0  0  0
 23 49  1  0  0  0  0
 23 58  1  0  0  0  0
 23120  1  0  0  0  0
 24 48  1  0  0  0  0
 24137  1  0  0  0  0
 24138  1  0  0  0  0
 25 50  1  0  0  0  0
 25 72  2  0  0  0  0
 26 69  1  0  0  0  0
 26146  1  0  0  0  0
 26147  1  0  0  0  0
 27 72  1  0  0  0  0
 27148  1  0  0  0  0
 27149  1  0  0  0  0
 28 72  1  0  0  0  0
 28150  1  0  0  0  0
 28151  1  0  0  0  0
 29 30  1  0  0  0  0
 29 35  1  0  0  0  0
 29 76  1  0  0  0  0
 30 31  1  0  0  0  0
 30 77  1  0  0  0  0
 30 78  1  0  0  0  0
 31 36  1  0  0  0  0
 31 37  1  0  0  0  0
 31 79  1  0  0  0  0
 32 33  1  0  0  0  0
 32 34  1  0  0  0  0
 32 80  1  0  0  0  0
 33 38  1  0  0  0  0
 33 82  1  0  0  0  0
 33 83  1  0  0  0  0
 36 84  1  0  0  0  0
 36 85  1  0  0  0  0
 36 86  1  0  0  0  0
 37 87  1  0  0  0  0
 37 88  1  0  0  0  0
 37 89  1  0  0  0  0
 38 50  1  0  0  0  0
 38 90  1  0  0  0  0
 38 91  1  0  0  0  0
 39 42  1  0  0  0  0
 39 51  1  0  0  0  0
 39 93  1  0  0  0  0
 40 53  1  0  0  0  0
 40 57  1  0  0  0  0
 40 95  1  0  0  0  0
 41 43  1  0  0  0  0
 41 44  1  0  0  0  0
 41 96  1  0  0  0  0
 41 97  1  0  0  0  0
 43 59  1  0  0  0  0
 43 60  1  0  0  0  0
 43 98  1  0  0  0  0
 44 65  1  0  0  0  0
 44 99  1  0  0  0  0
 45 54  1  0  0  0  0
 45 55  1  0  0  0  0
 45100  1  0  0  0  0
 46 47  1  0  0  0  0
 46 48  1  0  0  0  0
 46101  1  0  0  0  0
 46102  1  0  0  0  0
 47 63  1  0  0  0  0
 47 64  1  0  0  0  0
 47103  1  0  0  0  0
 48 58  1  0  0  0  0
 48104  1  0  0  0  0
 49 56  1  0  0  0  0
 49 62  1  0  0  0  0
 49105  1  0  0  0  0
 50106  1  0  0  0  0
 50107  1  0  0  0  0
 51 68  1  0  0  0  0
 51109  1  0  0  0  0
 51110  1  0  0  0  0
 52 61  1  0  0  0  0
 52 67  1  0  0  0  0
 52111  1  0  0  0  0
 54 66  1  0  0  0  0
 54113  1  0  0  0  0
 54114  1  0  0  0  0
 57115  1  0  0  0  0
 57116  1  0  0  0  0
 57117  1  0  0  0  0
 59124  1  0  0  0  0
 59125  1  0  0  0  0
 59126  1  0  0  0  0
 60121  1  0  0  0  0
 60122  1  0  0  0  0
 60123  1  0  0  0  0
 62 69  1  0  0  0  0
 62127  1  0  0  0  0
 62128  1  0  0  0  0
 63131  1  0  0  0  0
 63132  1  0  0  0  0
 63133  1  0  0  0  0
 64129  1  0  0  0  0
 64130  1  0  0  0  0
 64134  1  0  0  0  0
 66 70  2  0  0  0  0
 66 71  1  0  0  0  0
 67135  1  0  0  0  0
 67136  1  0  0  0  0
 70 73  1  0  0  0  0
 70139  1  0  0  0  0
 71 74  2  0  0  0  0
 71140  1  0  0  0  0
 73 75  2  0  0  0  0
 73142  1  0  0  0  0
 74 75  1  0  0  0  0
 74143  1  0  0  0  0
M  END
> <PUBCHEM_COMPOUND_CID>
71464397

> <PUBCHEM_COMPOUND_CANONICALIZED>
1

> <PUBCHEM_CACTVS_COMPLEXITY>
1990

> <PUBCHEM_CACTVS_HBOND_ACCEPTOR>
17

> <PUBCHEM_CACTVS_HBOND_DONOR>
16

> <PUBCHEM_CACTVS_ROTATABLE_BOND>
34

> <PUBCHEM_CACTVS_SUBSKEYS>
AAADcfB//AAAAAAAAAAAAAAAAAAAAAAAAAAwAAAAAAAAAAABAAAAHgAQCAAADSzhmAYzDoLAAgCoAiHSPAACAAEgIAAIiIGOCIgKdj6C0TOUcAAm9hGYmAe/yaCOIAAAAAAAAABAAAAAAAAAAAAAAAAAAA==

> <PUBCHEM_IUPAC_OPENEYE_NAME>
2-[[2-[[2-[2-[[2-[[2-[[2-[[4-amino-2-[(2-amino-4-methyl-pentanoyl)amino]-4-oxo-butanoyl]amino]-3-carboxy-propanoyl]amino]-5-guanidino-pentanoyl]amino]-4-methyl-pentanoyl]amino]propanoylamino]-3-hydroxy-propanoyl]amino]-3-(4-hydroxyphenyl)propanoyl]amino]-4-methyl-pentanoic acid

> <PUBCHEM_IUPAC_CAS_NAME>
2-[[2-[[2-[[2-[[2-[[2-[[2-[[4-amino-2-[(2-amino-4-methyl-1-oxopentyl)amino]-1,4-dioxobutyl]amino]-3-carboxy-1-oxopropyl]amino]-5-(diaminomethylideneamino)-1-oxopentyl]amino]-4-methyl-1-oxopentyl]amino]-1-oxopropyl]amino]-3-hydroxy-1-oxopropyl]amino]-3-(4-hydroxyphenyl)-1-oxopropyl]amino]-4-methylpentanoic acid

> <PUBCHEM_IUPAC_NAME>
2-[[2-[[2-[2-[[2-[[2-[[2-[[4-amino-2-[(2-amino-4-methylpentanoyl)amino]-4-oxobutanoyl]amino]-3-carboxypropanoyl]amino]-5-(diaminomethylideneamino)pentanoyl]amino]-4-methylpentanoyl]amino]propanoylamino]-3-hydroxypropanoyl]amino]-3-(4-hydroxyphenyl)propanoyl]amino]-4-methylpentanoic acid

> <PUBCHEM_IUPAC_SYSTEMATIC_NAME>
2-[[2-[[2-[2-[[2-[[2-[[2-[[4-azanyl-2-[(2-azanyl-4-methyl-pentanoyl)amino]-4-oxidanylidene-butanoyl]amino]-4-oxidanyl-4-oxidanylidene-butanoyl]amino]-5-[bis(azanyl)methylideneamino]pentanoyl]amino]-4-methyl-pentanoyl]amino]propanoylamino]-3-oxidanyl-propanoyl]amino]-3-(4-hydroxyphenyl)propanoyl]amino]-4-methyl-pentanoic acid

> <PUBCHEM_IUPAC_TRADITIONAL_NAME>
2-[[2-[[2-[2-[[2-[[2-[[2-[[4-amino-2-[(2-amino-4-methyl-pentanoyl)amino]-4-keto-butanoyl]amino]-3-carboxy-propanoyl]amino]-5-guanidino-pentanoyl]amino]-4-methyl-pentanoyl]amino]propanoylamino]-3-hydroxy-propanoyl]amino]-3-(4-hydroxyphenyl)propanoyl]amino]-4-methyl-valeric acid

> <PUBCHEM_IUPAC_INCHI>
InChI=1S/C47H77N13O15/c1-22(2)15-28(48)39(67)55-32(19-36(49)63)43(71)58-33(20-37(64)65)44(72)54-29(9-8-14-52-47(50)51)40(68)56-30(16-23(3)4)41(69)53-25(7)38(66)60-35(21-61)45(73)57-31(18-26-10-12-27(62)13-11-26)42(70)59-34(46(74)75)17-24(5)6/h10-13,22-25,28-35,61-62H,8-9,14-21,48H2,1-7H3,(H2,49,63)(H,53,69)(H,54,72)(H,55,67)(H,56,68)(H,57,73)(H,58,71)(H,59,70)(H,60,66)(H,64,65)(H,74,75)(H4,50,51,52)

> <PUBCHEM_IUPAC_INCHIKEY>
YSYNNTAQMGZRJN-UHFFFAOYSA-N

> <PUBCHEM_XLOGP3_AA>
-4.5

> <PUBCHEM_EXACT_MASS>
1063.566209

> <PUBCHEM_MOLECULAR_FORMULA>
C47H77N13O15

> <PUBCHEM_MOLECULAR_WEIGHT>
1064.19238

> <PUBCHEM_OPENEYE_CAN_SMILES>
CC(C)CC(C(=O)NC(CC(=O)N)C(=O)NC(CC(=O)O)C(=O)NC(CCCN=C(N)N)C(=O)NC(CC(C)C)C(=O)NC(C)C(=O)NC(CO)C(=O)NC(CC1=CC=C(C=C1)O)C(=O)NC(CC(C)C)C(=O)O)N

> <PUBCHEM_OPENEYE_ISO_SMILES>
CC(C)CC(C(=O)NC(CC(=O)N)C(=O)NC(CC(=O)O)C(=O)NC(CCCN=C(N)N)C(=O)NC(CC(C)C)C(=O)NC(C)C(=O)NC(CO)C(=O)NC(CC1=CC=C(C=C1)O)C(=O)NC(CC(C)C)C(=O)O)N

> <PUBCHEM_CACTVS_TPSA>
481

> <PUBCHEM_MONOISOTOPIC_WEIGHT>
1063.566209

> <PUBCHEM_TOTAL_CHARGE>
0

> <PUBCHEM_HEAVY_ATOM_COUNT>
75

> <PUBCHEM_ATOM_DEF_STEREO_COUNT>
0

> <PUBCHEM_ATOM_UDEF_STEREO_COUNT>
9

> <PUBCHEM_BOND_DEF_STEREO_COUNT>
0

> <PUBCHEM_BOND_UDEF_STEREO_COUNT>
0

> <PUBCHEM_ISOTOPIC_ATOM_COUNT>
0

> <PUBCHEM_COMPONENT_COUNT>
1

> <PUBCHEM_CACTVS_TAUTO_COUNT>
1001

> <PUBCHEM_COORDINATE_TYPE>
1
5
255

> <PUBCHEM_BONDANNOTATIONS>
48  24  3
29  30  3
32  33  3
39  51  3
40  57  3
44  41  3
45  54  3
49  62  3
52  67  3
66  70  8
66  71  8
70  73  8
71  74  8
73  75  8
74  75  8

$$$$
